 -3.1284511e-05   1.9666028e-05
  8.5640486e-06   4.9514852e-06
  1.6080927e-05   1.2037244e-05
  8.4042324e-05   2.2105000e-05
  1.4238349e-04   1.7849330e-06
  2.6043603e-05   2.5463747e-05
 -7.0326007e-07   1.4461024e-06
  2.5226169e-05   1.4477389e-06
 -3.4957797e-05   1.1072711e-05
  1.1739620e-04   3.6100828e-06
 -1.7055125e-04   1.3828159e-05
  7.4787684e-05   1.4565567e-05
 -1.3400817e-04   2.5339164e-06
  1.0183520e-04   2.3740467e-05
  8.4549909e-05   4.6247510e-06
 -1.4514242e-05   4.1685760e-07
 -1.2519320e-05   7.7516561e-06
  1.0942273e-04   2.0564105e-06
  1.2134930e-04   1.5350355e-05
  1.9218570e-04   2.1067395e-05
  4.9674269e-05   6.7001624e-06
  7.2985317e-06   1.2081139e-05
  2.4120031e-05   1.8836945e-05
  1.2109018e-04   2.0537450e-06
 -6.5444750e-05   3.2298810e-06
  9.3603674e-05   2.0059339e-05
 -1.5789774e-04   3.6804213e-05
  1.5421490e-04   1.9717390e-05
  3.8590738e-06   5.4355796e-06
  4.7601199e-05   6.3807499e-07
 -4.8461403e-05   1.1502434e-06
 -9.5642543e-05   3.8987932e-06
  5.7250741e-06   6.0859670e-06
 -1.0706278e-04   5.7687575e-06
  1.2645857e-05   5.6297422e-06
  9.8030059e-06   9.0968551e-06
 -1.8856592e-05   5.0075037e-06
 -3.3928049e-05   2.4025408e-05
 -4.3550812e-05   8.2586184e-06
  1.7344550e-04   1.1265673e-06
  1.8674749e-05   6.0851839e-06
  1.4873469e-04   2.3168122e-06
  2.4829680e-05   1.3113944e-05
  1.5785059e-04   2.5278625e-06
 -9.3534807e-05   2.1404361e-05
  1.8196974e-05   4.6652426e-06
  4.0196381e-05   4.0246305e-06
 -1.2666592e-04   8.7357212e-06
 -1.8004579e-05   1.1365372e-06
  7.3547824e-05   2.3783163e-05
  5.9611237e-05   3.0595922e-06
 -1.3260142e-04   5.2454184e-06
  5.7557118e-05   4.5526207e-07
  5.0054419e-05   2.3404273e-05
 -6.4036003e-06   1.8437470e-06
  1.1797329e-02   1.8894474e-05
 -8.1457882e-05   9.3419239e-06
  1.6536690e-04   1.0695949e-05
 -1.1637211e-03   6.6234547e-06
 -2.1483406e-01   3.4083962e-05
  4.7216420e-03   1.0241572e-05
  1.2223420e-02   1.0823738e-04
  3.5760782e-05   2.3335102e-05
 -1.9726840e-04   3.8678040e-06
 -1.7081136e-04   8.2952391e-07
 -4.5547924e-05   5.2016669e-05
  2.0123742e-04   5.2717422e-08
 -1.5288440e-04   1.4515951e-05
  3.8723679e-06   2.4529942e-05
 -5.3918222e-07   2.4408759e-05
  6.0567436e-05   1.5781094e-05
 -7.0782266e-06   2.1358424e-05
  7.5639007e-05   7.1327139e-07
  1.4987929e-05   5.5387491e-06
  1.3697305e-04   1.5829946e-05
 -2.3241400e-05   3.5247729e-06
 -1.2652238e-06   2.3341931e-05
  5.8821354e-02   2.0919781e-05
 -4.8641232e-05   1.2779703e-05
 -3.3498021e-05   3.0372860e-06
 -3.1804698e-04   1.8315943e-06
  5.9719310e-05   5.8785640e-06
 -1.0729418e-04   2.4165763e-06
  1.7999949e-02   4.6366618e-05
  1.8072977e-04   1.1842059e-05
 -2.0258705e-05   1.1512054e-05
  2.5272890e-05   3.6707948e-05
  1.9824364e-04   2.4854215e-05
  3.1964559e-02   4.8647038e-05
  6.1423278e-05   2.5926638e-06
 -4.2048006e-05   1.3075231e-07
 -3.0445544e-05   1.2679650e-05
  2.7038815e-04   7.1729210e-06
  1.1363810e-04   5.2452133e-06
 -1.3205503e-03   3.0422177e-06
  5.1918742e-05   9.4643074e-06
 -1.1480225e-04   8.1849048e-06
  1.0844249e-04   2.9421059e-05
 -4.1302806e-05   6.7014589e-06
 -1.2406337e-05   2.2735730e-06
 -1.6901693e-05   1.0370713e-05
 -3.7238502e-04   1.0181922e-05
  7.1347305e-05   9.0422429e-07
 -8.1826453e-05   1.1034443e-05
 -2.7120708e-05   1.0301688e-05
 -6.4541900e-06   7.5523576e-06
  1.7224895e-04   1.4442328e-05
  9.7422446e-05   5.5421206e-06
  6.8804045e-05   4.3472032e-06
 -8.7028649e-03   4.5862434e-06
  2.2227283e-05   1.5520202e-06
 -1.9260321e-04   1.1841698e-05
  2.7928922e-01   8.1901044e-06
  2.2629438e-01   1.5758200e-05
  3.2382541e-05   5.9061013e-06
 -7.7636853e-02   4.9526989e-05
 -6.8547575e-05   2.4221705e-05
  1.8416071e-05   7.5506858e-07
 -1.3420754e-04   7.6866354e-06
 -2.8867254e-04   1.2314352e-05
  2.3198442e-04   2.3926741e-05
  1.0930570e-04   2.3521236e-05
 -9.0440291e-05   2.8768909e-05
  7.3983453e-02   8.5825613e-06
 -6.0039383e-05   7.8054909e-06
 -1.7220085e-04   7.4851996e-06
  4.2644086e-05   2.2847646e-06
 -2.4283831e-06   7.5027856e-06
 -4.0430226e-04   2.1581657e-06
  1.5608915e-04   6.8118484e-06
 -7.5976830e-05   2.9566703e-05
 -8.1505133e-03   6.0497769e-06
 -1.8298332e-04   7.8048743e-07
  5.5099605e-05   3.7069171e-06
  2.3011923e-02   3.5335272e-04
  6.4039916e-05   6.9170875e-07
 -1.3293397e-04   2.9145572e-06
 -1.6862915e-01   3.5623008e-05
  7.0588816e-05   2.7152596e-06
 -6.3446663e-07   1.4016518e-05
 -8.6186163e-04   1.3203953e-05
 -9.5344987e-03   1.3726814e-05
 -1.5502358e-04   4.9526084e-06
  4.7182939e-06   1.4989261e-05
  7.9878475e-07   1.4012524e-05
  1.5109130e-04   2.9845407e-06
 -1.6088148e-03   6.8707086e-05
 -4.2024400e-05   5.4248590e-06
  1.2823235e-02   4.1546067e-05
 -1.7324752e-04   6.1659916e-06
  5.0540739e-06   5.2983073e-06
  7.4675032e-03   5.1029638e-06
  3.1374799e-05   1.1729024e-05
 -5.1436338e-05   9.0587682e-06
 -2.3053985e-04   2.1677956e-06
  1.5206468e-05   1.4017426e-05
 -1.2473029e-04   6.6080265e-06
 -1.5402066e-04   1.2303698e-06
  1.5337254e-03   3.6558009e-07
  4.0762628e-05   1.4172352e-06
 -1.2552497e-04   8.3528190e-05
 -7.3435418e-05   5.8399160e-06
  1.0144437e-01   2.3740442e-05
  9.7433442e-01   2.6229989e-05
  6.4958207e-05   1.2053871e-05
 -2.6834318e-01   2.5355084e-06
  7.4419272e-01   5.8340208e-07
 -8.6236548e-01   7.6908227e-06
 -7.1690999e-02   2.9962157e-06
  8.7809825e-01   2.3735005e-05
 -1.0251056e-01   1.0060150e-05
 -3.2394815e-05   1.1017555e-05
  1.7822907e-05   9.8984892e-06
  3.8192706e-05   4.9353757e-06
 -3.4722172e-05   2.5808673e-05
 -1.0021978e-04   1.3509787e-06
  2.1508008e-01   1.9877630e-06
 -2.4850382e-01   1.3792239e-05
 -5.4857799e-05   7.7882660e-06
  2.9630837e-05   4.0829859e-06
  1.0820998e-04   8.2730394e-06
  8.2995766e-06   2.2608039e-05
  2.6878420e-01   2.9646944e-06
  6.9416251e-06   1.0907866e-05
 -4.8392612e-02   6.2373738e-07
  4.5797300e-01   1.1239101e-05
 -6.2481144e-05   9.8050305e-06
  4.1766525e-05   8.9711702e-06
 -1.7623791e-01   1.1361700e-04
 -6.0348093e-06   5.7662896e-06
 -2.4123723e-05   1.3168592e-05
  3.9685246e-01   8.1437429e-05
 -2.9677741e-04   4.5295607e-07
 -1.5679306e-01   5.6887009e-05
  1.0313975e-02   1.4374319e-06
  1.1534910e-01   1.7167064e-05
 -8.6519080e-01   2.9075753e-05
  3.7541593e-04   1.2988258e-05
 -9.8852484e-05   1.0170615e-06
 -1.0880930e-04   7.2250382e-06
  1.5963417e-01   7.9810678e-05
  1.6525052e-04   5.0822614e-06
 -6.4887363e-01   2.9437527e-07
  2.8110692e-02   2.0734478e-05
 -3.0186519e-04   1.3181614e-06
 -5.7213150e-02   3.3514498e-06
 -2.4608855e-05   5.7119446e-06
  9.7559596e-06   1.8479426e-05
  1.0139188e-04   2.1810270e-05
 -1.7458769e-02   2.4513098e-05
 -5.4322576e-05   2.3328728e-05
 -4.5339488e-03   7.7503646e-05
 -9.5309241e-04   2.5159311e-06
  1.3896773e-05   4.4852197e-05
  2.0846531e-03   7.2283206e-06
 -1.4582610e-05   7.4228183e-06
 -8.1810594e-01   4.6585752e-05
 -4.0864423e-05   1.9223289e-05
  5.9560430e-06   1.9025929e-05
  2.8099099e-02   3.5145119e-06
  1.8282356e-03   8.9397236e-06
  7.3880345e-02   1.7956296e-05
  5.5769235e-02   3.1479922e-07
  2.0957047e-01   6.7061596e-06
  1.1269778e+00   3.9426500e-06
  1.1192317e-05   2.2912591e-06
 -5.9730490e-05   2.5760719e-06
  1.0967297e-05   3.0130655e-05
 -3.4106579e-05   2.5374697e-05
 -1.8429568e-02   7.1431568e-05
  3.2979977e-01   1.7269691e-05
  3.3697772e-01   2.6759022e-04
  5.7866517e-03   2.3183236e-05
 -8.9526409e-05   4.2135866e-06
  6.9950358e-05   2.4054327e-06
 -4.4433755e-06   2.6567504e-06
 -5.1022059e-01   4.3331489e-05
  9.8002034e-05   2.8750931e-06
  2.3461917e-01   3.7292230e-05
  2.8399501e-03   2.5712868e-06
  1.0957005e-04   8.7225061e-07
  5.3201962e-01   1.6059856e-05
  3.0869690e-01   1.0346054e-04
  1.0209279e-02   1.6652124e-05
 -3.5567380e-05   7.2379635e-06
 -1.8220910e-01   6.3065556e-05
  8.2125051e-05   1.0837379e-05
  4.8835051e-01   1.3588791e-05
 -1.7949578e-01   1.7406102e-05
  1.0408176e-03   1.9651397e-05
  4.7918263e-01   5.8071355e-06
 -7.2497741e-04   8.1543796e-05
 -1.9636191e-05   2.2941449e-05
 -1.6922173e-04   4.5375864e-06
 -3.8146186e-01   2.0442891e-04
 -4.2599172e-06   2.0420428e-06
 -8.3057545e-05   9.8766941e-07
 -3.8811311e-01   5.1553932e-05
 -6.4648189e-02   1.3611332e-05
 -4.3544136e-05   1.2642343e-05
 -6.5535423e-05   2.5617323e-06
 -2.3891564e-05   6.9058973e-07
 -3.1372983e-05   3.2433416e-06
  6.8451359e-04   3.4940763e-07
  5.4919856e-05   2.1099277e-06
  1.5854562e-04   4.9716695e-05
  6.3131906e-02   5.2174943e-05
 -4.5494842e-05   9.5182186e-06
  3.1457271e-02   1.8406298e-06
 -4.9762853e-05   2.2143615e-06
 -2.7919584e-04   4.1227329e-05
 -2.1671349e-02   6.5108738e-06
  7.3400566e-05   1.2123044e-05
 -6.9058068e-02   3.5702158e-06
  3.0181250e-02   5.8181654e-06
  1.7917765e-03   1.3122182e-06
  9.7726576e-02   3.7874150e-05
 -1.3097376e-01   6.0301438e-05
 -2.6427424e-01   2.0974203e-05
  2.0376017e-04   3.7866635e-06
  4.6242461e-05   4.3468945e-06
 -1.8301742e-03   1.5180194e-05
  1.6206768e-05   1.0746146e-05
  1.6854567e-04   5.6785142e-05
 -1.6898382e-03   1.3758224e-05
  1.8519737e-01   2.9261228e-05
 -6.8045243e-05   4.9060363e-06
 -7.2726012e-05   7.7084172e-07
 -9.4711875e-05   2.9549756e-06
 -6.3326414e-05   4.3794162e-07
 -2.3077177e-02   9.4445088e-05
 -2.8849374e-05   8.4513149e-06
  5.1907306e-03   1.3650461e-05
 -2.3873532e-02   1.0573029e-05
 -5.7029695e-04   8.7197732e-06
  6.8636186e-02   4.0733275e-06
  1.0770115e-01   5.7156448e-04
  1.4079815e-05   1.6940985e-06
  1.4078899e-04   5.8825844e-06
 -2.5619611e-01   1.2889004e-05
 -2.8695908e-06   2.7125670e-06
 -1.0668308e-04   1.4804397e-05
 -8.7365940e-02   6.4615273e-07
 -1.0669598e-01   5.6994941e-06
  3.7766658e-03   2.1110060e-05
 -5.4044463e-05   2.4469999e-05
  1.2054188e-04   6.1332757e-06
 -9.9105084e-05   6.0721263e-06
 -9.8299198e-02   1.8087367e-04
 -1.4530011e-05   1.2585347e-05
  1.2530379e-01   2.0941296e-05
 -2.0735625e-02   4.5338529e-05
  8.5048180e-04   3.7553953e-05
  1.0579761e-02   2.9560184e-05
  2.5437088e-05   1.5114382e-05
  1.6304370e-05   1.5864824e-05
  1.3085339e-05   2.1288931e-06
  9.8576362e-04   8.5651634e-05
 -6.5456174e-05   6.6219004e-06
  7.1467081e-04   5.5210262e-06
  2.0270645e-04   2.1465812e-05
 -6.5130182e-05   1.4106174e-05
 -2.5062876e-02   7.3424482e-05
  2.0562754e-04   5.5519181e-06
 -2.0493730e-04   3.0398644e-06
  1.2889792e-05   1.4808208e-05
 -1.2958376e-06   6.6114471e-06
 -5.4341559e-05   2.8194263e-05
  7.6890370e-05   1.3819102e-05
  1.5328768e-04   2.2209721e-05
  1.2387401e-04   2.2839669e-05
 -7.9727739e-05   2.8459269e-06
  6.6401499e-06   8.1884136e-06
 -6.5027634e-05   1.1894580e-05
  1.4278213e-04   8.7154403e-06
 -1.3274528e-04   7.4856453e-06
 -1.6831384e-04   2.3817094e-05
 -4.1492480e-05   2.2907021e-05
 -8.7925846e-06   9.0804406e-07
  3.6243251e-05   1.6607410e-05
  2.8807383e-06   1.1141478e-05
  8.5055108e-05   6.8025349e-07
  2.0298496e-05   7.1541035e-06
  5.7581034e-05   1.2992330e-05
 -2.3401027e-04   1.1471667e-06
 -5.6142675e-05   1.7339224e-05
 -5.0413695e-05   8.0895443e-06
 -5.9569779e-06   4.9651053e-06
 -4.1876308e-05   4.3240620e-06
  4.1891253e-05   8.1916023e-06
  1.2116644e-04   4.3137520e-06
  4.0898897e-04   9.5314317e-07
 -4.4235578e-05   9.0601852e-06
 -5.3642740e-05   7.9213987e-06
  7.8294717e-05   9.1392731e-06
  1.0128706e-04   2.5765535e-06
  1.5197924e-04   1.9357394e-06
  1.2954885e-05   1.3569579e-05
 -2.2224480e-05   3.4113124e-05
  1.2721368e-05   1.0049636e-05
 -4.7915641e-05   4.6861451e-06
 -4.3077933e-05   1.3466375e-05
  3.7256534e-05   1.3222304e-05
 -1.1934489e-04   6.4208615e-07
  9.6392592e-05   1.0692877e-05
  2.0823511e-04   5.9177755e-06
 -2.4877316e-05   2.5867486e-05
 -6.8098903e-05   2.9867895e-06
  1.0566104e-05   1.3651597e-06
 -7.7465293e-06   6.2314243e-06
  8.6021910e-06   6.9226149e-07
  3.0554409e-05   1.8373095e-05
  2.9387738e-04   6.8526397e-06
 -3.0852632e-05   1.2381155e-06
 -1.1486365e-04   8.5721967e-07
  1.8964001e-05   1.4088801e-05
 -5.2716459e-05   2.5634306e-06
  1.5458991e-05   5.4007501e-06
 -3.1089850e-05   1.3336211e-05
  1.5273292e-04   5.8872693e-06
  1.8150805e-04   8.8790448e-06
  2.3148717e-05   2.6484147e-06
  1.4459218e-04   1.8452427e-06
 -3.0626859e-05   1.3380054e-06
  1.0124513e-04   2.3807595e-06
  1.1036983e-04   3.3489732e-06
  4.2780604e-05   1.2651973e-06
  1.2373272e-04   6.8952545e-06
 -2.5850171e-05   5.4159636e-07
 -9.2051356e-05   1.2284141e-05
 -1.3647020e-05   2.1948654e-05
 -2.5193488e-06   1.5798563e-05
 -4.9325066e-05   6.6053103e-06
  3.1159139e-05   1.1856621e-05
  9.3384006e-05   4.9192417e-06
 -6.3071144e-05   1.1370871e-05
 -2.2834400e-04   2.4752283e-06
  9.2775292e-05   2.6168896e-06
 -7.0662420e-05   1.0394872e-06
  8.4253287e-07   4.9305968e-06
  4.9491769e-05   4.0862901e-06
  6.7174136e-05   5.4156526e-06
 -2.9249636e-06   1.1058946e-05
 -4.3653188e-05   2.2793593e-05
  1.6137885e-06   1.4064797e-05
  8.4785432e-05   1.5310085e-06
 -2.8692122e-05   1.2384328e-05
 -4.9014670e-05   2.3064153e-05
  3.2956821e-05   1.0008084e-05
 -2.4583442e-05   8.5815709e-06
 -4.6346755e-05   9.3372500e-06
 -1.8876053e-04   6.8139693e-06
 -2.5840336e-04   6.5699028e-06
  9.8965349e-05   2.2619743e-05
 -1.3753164e-04   5.3183062e-06
 -1.4886892e-05   2.9801790e-06
  1.0463320e-04   1.3757898e-05
 -1.6878625e-05   3.1105072e-05
  1.7159380e-05   2.5169236e-05
  8.7199924e-06   2.0757303e-05
  4.9754541e-05   1.0618861e-05
 -1.3418306e-05   1.7964834e-05
 -6.6882742e-05   1.1954632e-05
 -2.3258128e-04   1.8275581e-05
 -1.6449299e-04   2.0520301e-05
 -4.1040148e-05   2.6049629e-05
 -4.4604643e-05   9.0144334e-07
  2.0436597e-05   8.8980541e-06
  5.9138230e-05   6.3584921e-06
 -7.7705472e-06   3.8277731e-06
  5.5787910e-05   2.2193983e-05
  7.6949927e-06   2.8065808e-05
  2.1193675e-05   6.7989149e-06
 -4.9001450e-04   8.0087028e-07
 -1.2105355e-06   4.5680426e-06
  3.8022987e-05   1.0662891e-06
 -3.2700344e-05   7.1034087e-06
  1.8079592e-06   1.6025397e-05
 -1.4476239e-04   4.5186648e-06
 -1.8532615e-04   2.1389549e-06
 -8.4138133e-05   1.1889257e-05
 -5.6679448e-05   1.9204197e-06
 -3.4788407e-06   7.2007347e-06
  1.9209367e-05   6.7105925e-06
  2.5400032e-05   1.5514430e-05
  3.1763349e-05   1.0825059e-06
  3.7326998e-05   1.6470809e-06
 -4.6444315e-05   5.1109132e-06
 -4.9899507e-05   2.5209782e-05
 -4.8323771e-05   1.8620551e-06
 -1.5033290e-04   2.1570753e-05
  7.6950782e-05   2.1742605e-06
  2.0294408e-04   8.3817740e-06
 -8.9616406e-06   5.6100930e-06
  2.8599409e-04   1.1444239e-05
 -2.9278730e-04   1.1076040e-05
 -3.1595714e-06   1.1076613e-06
 -1.7990576e-05   2.4841545e-05
  5.7287689e-05   1.6082769e-05
 -3.1228944e-06   1.1614507e-05
 -6.0754548e-05   2.0333857e-05
 -6.8773807e-05   1.5532740e-07
  1.5522186e-04   1.0837582e-05
 -5.5137293e-06   1.3036070e-05
  7.8590354e-05   2.6899286e-05
  1.8620527e-05   3.8022343e-05
  3.0348906e-06   5.5585897e-06
 -3.6503312e-05   3.5232379e-06
  1.6785470e-04   1.8779613e-06
 -4.4878724e-04   1.2332813e-06
 -8.0452792e-06   1.2002551e-05
  6.0658076e-05   6.6625385e-06
  1.8768966e-05   6.9936796e-06
 -3.1866782e-04   7.4701762e-07
 -8.6419524e-05   1.2297050e-05
  2.2408371e-04   1.9713591e-05
  1.2484871e-04   1.5810632e-06
 -2.1262542e-05   1.5812804e-05
  6.9453548e-05   1.1199287e-05
 -7.4093674e-05   9.6280728e-06
 -1.9732177e-05   1.0723483e-05
 -1.5168003e-04   9.1345992e-06
 -2.1580154e-05   1.4758585e-05
 -5.9935675e-05   1.1765077e-05
 -9.3401250e-05   2.1840895e-06
  9.1517293e-05   2.5562131e-05
  3.1902426e-05   3.9466613e-06
 -8.6737498e-05   4.6924110e-06
 -1.5597673e-04   3.9375664e-06
  7.6593962e-05   1.0387544e-05
 -3.1418926e-06   7.3934880e-06
 -1.4534628e-05   1.3945920e-05
 -1.9987472e-04   2.9062947e-05
  4.6561847e-05   1.1278037e-05
  1.3092258e-04   3.3952711e-06
 -4.9730872e-05   6.9318885e-06
 -3.5043555e-05   2.0122936e-06
 -6.2959836e-05   4.4804597e-07
 -1.4344331e-04   3.3716542e-06
 -2.9817633e-05   6.7421111e-06
  2.9999761e-05   2.9299483e-06
  3.5757932e-04   6.3934640e-06
 -2.6347599e-05   4.2666702e-06
 -4.5632733e-06   5.5584161e-07
  3.6087938e-05   9.1996053e-06
 -6.4579581e-06   6.9812090e-06
  2.8077686e-05   1.4785552e-05
  5.3133495e-05   3.1751377e-05
  9.3185648e-05   1.4087422e-05
  3.4444834e-05   4.1443950e-06
 -8.1502272e-05   1.5633914e-06
  1.0606375e-04   4.6257474e-06
  9.9663148e-06   1.2069653e-05
 -3.1267082e-06   1.1674885e-05
 -1.9830788e-04   7.2592848e-06
  1.9206016e-05   7.1307927e-06
  4.0915953e-07   2.3135110e-05
 -9.4378658e-05   1.0835159e-05
 -2.4303165e-05   7.9919837e-06
  9.5045743e-06   7.2535427e-06
  5.2187821e-05   5.9218651e-06
 -1.3649435e-05   1.4718022e-06
 -4.9324561e-05   1.3183653e-05
 -1.3296715e-04   2.6023352e-07
 -3.2606993e-05   1.7049291e-06
  2.3322074e-05   9.6011145e-06
  1.0314335e-04   7.6793031e-06
 -3.1506857e-05   5.6097365e-06
  2.7395889e-05   1.4652691e-05
 -1.8417594e-04   1.4685554e-06
  1.2955382e-04   2.4457289e-05
  1.1749094e-05   1.6123007e-05
 -1.1701215e-04   3.0598021e-05
  4.5781726e-05   3.1566204e-05
 -2.0276248e-05   1.4908745e-05
  9.7568318e-06   4.0899322e-06
  1.2941727e-04   1.0406657e-05
  1.4371902e-05   6.5705217e-06
  1.5344845e-04   4.3832912e-07
  3.8912494e-05   1.5491065e-05
 -2.3638077e-05   5.3245994e-06
  6.2021223e-05   2.5649439e-05
  3.0491609e-04   9.0153271e-06
  2.2494870e-04   1.5068606e-05
  5.6814359e-05   7.7556724e-06
 -1.1476695e-05   2.6662922e-06
  6.2181622e-05   2.7473645e-06
  3.6718240e-05   3.4509324e-06
  3.9968621e-05   2.8595200e-06
  2.0522381e-05   4.6386363e-06
 -1.3170961e-05   2.9692669e-06
 -1.2210816e-05   1.8443119e-05
  3.5361190e-05   1.5451447e-05
 -9.4785049e-05   7.9084357e-06
 -6.0864142e-05   4.7286007e-06
 -2.1904358e-04   9.7911943e-06
  6.1776904e-05   1.8892356e-06
 -7.4544514e-05   2.8188848e-05
 -4.0920506e-07   1.8975927e-05
  2.2620559e-05   2.9176399e-06
  4.4418146e-05   8.1293547e-06
  1.4152299e-04   5.4599245e-06
 -2.1670307e-05   1.6221109e-05
 -3.2583008e-05   2.0889361e-06
 -1.4906615e-05   1.2036108e-05
 -1.6833242e-07   1.5109631e-05
 -1.4288946e-04   2.8545586e-05
  3.7503170e-05   3.8397970e-06
 -3.2241616e-05   4.9837108e-06
  7.0147682e-04   1.3650740e-05
  3.1862175e-04   9.4141487e-06
  5.1925239e-05   8.5133106e-06
  5.0459315e-05   3.0408653e-06
  2.7269205e-05   9.5134428e-06
  7.0519777e-06   2.9358346e-06
  3.4614070e-05   1.1890432e-06
  2.3175431e-05   1.4016484e-05
  6.3003819e-05   1.5814063e-05
  1.5588615e-04   3.8144256e-06
 -3.9119994e-05   1.6011334e-05
  1.4628314e-04   7.2587986e-06
 -5.1603267e-05   5.0611848e-06
 -3.6237552e-06   1.0272698e-05
 -1.2913936e-04   2.2343766e-06
  9.8176242e-05   2.6070627e-06
  2.8590619e-06   1.3476515e-06
 -3.7279517e-07   8.7944591e-06
 -5.5583783e-05   4.8204429e-06
 -1.3871861e-04   1.7915121e-05
  4.4078941e-05   3.2752640e-05
 -2.6637152e-05   1.0747432e-05
  1.3976881e-05   2.9789360e-05
 -3.5450012e-05   5.8663791e-06
 -1.4053576e-04   1.4215215e-05
  1.7422429e-04   6.9528114e-06
 -5.5858836e-06   1.0386825e-05
  3.4263336e-05   2.6166842e-06
 -1.6671042e-04   6.0019106e-06
  2.1182641e-02   2.2383008e-06
 -1.4231489e-06   3.1372804e-06
 -2.4037970e-06   5.0157546e-06
  8.1285807e-06   4.2271472e-06
  4.5851460e-01   1.6553924e-05
  3.0705203e-05   6.7431070e-06
  1.8382337e-04   1.0283709e-06
 -1.3574045e-04   1.5403579e-05
 -1.9898574e-04   4.3420619e-07
 -6.0634502e-05   3.9367526e-07
 -1.0357000e-04   1.1148383e-05
  1.2209355e-05   1.6709266e-05
 -3.7475009e-05   2.5365247e-05
  1.1754418e-04   2.5899419e-06
  2.9145638e-06   2.0907323e-06
  1.0281300e-04   5.1681906e-07
 -5.6845547e-05   8.6853845e-07
  5.4874479e-05   2.1350486e-05
 -5.5751276e-05   2.7387746e-06
 -5.8617346e-02   6.0490370e-06
  6.4085898e-06   8.9718387e-06
 -1.3555470e-04   9.1747024e-06
 -1.2570965e-05   9.2630617e-06
 -6.4270978e-05   1.9952353e-05
  5.6435245e-05   4.1147887e-06
 -6.0490506e-06   6.6243406e-06
  8.5187006e-05   2.1201522e-06
  2.0715896e-05   1.1656179e-05
  1.7347552e-06   1.3796041e-05
  4.3809327e-05   4.1567578e-06
 -2.1542453e-05   3.1362175e-05
 -1.1521482e-05   1.6585149e-06
 -1.9474521e-05   8.9762915e-07
 -8.6155560e-05   4.7928611e-06
 -9.0604863e-06   4.3463715e-06
 -1.4679271e-04   2.4799785e-06
 -9.1423550e-05   8.9936220e-06
 -1.0596612e-04   5.9398798e-07
 -2.4677985e-05   1.6187552e-05
  2.4733488e-05   5.2730747e-06
  5.4931443e-04   6.9401352e-07
  1.2657506e-05   3.9392748e-05
 -8.7330191e-05   1.6167221e-05
  2.5354570e-05   2.2226202e-06
 -1.4578435e-04   6.3455394e-07
  9.4789066e-05   5.2830883e-06
  1.3472240e-05   1.1946220e-05
  4.9405826e-05   4.6849814e-06
 -1.7991435e-04   3.2383743e-06
  8.1780963e-06   4.9145337e-06
  2.4713821e-05   1.0857863e-05
 -2.6913358e-05   4.0582331e-06
 -2.2730515e-05   8.9730183e-06
  8.6445201e-05   2.2959997e-05
 -2.1728518e-05   1.4930734e-05
  8.9350142e-05   4.0107179e-06
  8.5601969e-05   9.3519820e-06
  3.0069674e-05   1.8143528e-05
 -3.4004257e-05   4.5994602e-06
 -8.6865679e-05   1.0263595e-06
  1.7230076e-04   3.0276591e-05
  1.0484812e-04   1.4553762e-05
  1.3508798e-05   1.5780130e-05
 -4.1656589e-05   5.8424016e-06
 -3.2432115e-05   8.9017431e-06
  6.1722400e-05   4.2267880e-06
  5.2304094e-05   1.2084998e-05
  2.3896866e-05   5.6398376e-06
 -5.1461615e-05   1.0517122e-05
  8.9213194e-05   2.6626878e-06
 -1.3544204e-04   1.8924767e-07
  4.9498409e-05   5.9354384e-06
  1.5077974e-04   2.1613419e-06
 -7.1180232e-02   7.1675345e-06
  1.8914798e-05   5.4280173e-07
 -1.9382162e-04   1.0157434e-05
  1.8151441e-04   9.9841300e-06
  1.2783858e-04   1.2051528e-05
 -4.6686414e-06   1.0247637e-05
 -1.5196473e-04   1.3070895e-06
 -1.1670779e-04   1.0171929e-06
 -1.9004825e-05   3.2712205e-07
 -2.3183440e-04   4.8988829e-07
 -2.6185138e-05   6.2289955e-06
 -2.7720109e-05   6.2445440e-07
  1.2562108e-04   8.6683285e-06
 -6.3229636e-05   3.4482402e-06
 -6.0354461e-05   6.9654138e-06
  1.4497696e-04   2.8847775e-05
  3.3181164e-05   6.5394715e-06
  2.9660532e-05   4.4072472e-06
  9.5857411e-07   8.0029067e-06
  3.3032535e-05   1.5216492e-05
  8.4056075e-05   3.7691100e-06
  6.5809618e-05   7.5158700e-06
  1.6763835e-04   4.9858977e-06
  5.2058898e-05   1.7419945e-05
 -2.7701082e-05   4.1024809e-06
 -1.0650915e-05   9.0170835e-07
 -1.0807069e-05   3.3490749e-06
 -7.4962758e-05   5.5514101e-06
  1.3222895e-04   2.4167564e-06
 -4.4242264e-05   3.7213165e-06
 -8.6884233e-05   1.7904431e-05
  9.3039207e-02   1.9720634e-05
 -4.1855094e-01   1.4341647e-06
  2.1140000e-01   5.8251362e-06
 -2.9192895e-02   5.6052904e-06
  3.4013532e-02   1.8538893e-07
 -2.0202242e-01   2.0585714e-05
  7.2225598e-03   3.7867576e-06
  3.4549475e-01   3.9434864e-05
  1.9869167e-01   2.6769361e-05
 -1.4856330e-04   7.8724810e-07
  8.8825755e-06   2.6980873e-05
  2.1645778e-01   3.2935222e-05
  1.6377944e-05   5.2882348e-07
 -2.5098225e-02   4.4184899e-06
  1.0911326e-01   6.3469715e-06
 -5.2682990e-01   7.0100417e-05
  3.9759473e-04   4.0703315e-05
  1.8753571e-04   1.0788209e-05
  5.8975853e-05   3.1474014e-05
 -7.6808155e-06   1.2451985e-05
  1.9349866e-02   1.8000053e-05
  2.7117541e-05   1.4305580e-05
 -6.9845699e-02   2.2178533e-06
  5.6359150e-02   3.0245976e-05
  3.4854232e-04   7.5939956e-06
 -3.6363315e-05   4.8084976e-06
 -3.9437062e-01   2.0544302e-04
  7.6042534e-06   6.1275341e-06
 -5.2323098e-06   6.3281323e-06
  7.4895459e-01   1.2106309e-04
 -7.3644136e-05   1.0218578e-05
  9.8913759e-02   2.4263223e-05
  2.2792521e-01   1.0244680e-05
  4.0662915e-01   7.8140920e-06
  4.2092018e-03   2.4577096e-06
  7.4356700e-05   2.7279755e-05
  1.2511290e-04   5.0164540e-06
  3.1244027e-04   5.6277986e-06
  2.5604445e-01   2.9697126e-06
 -1.6064920e-05   2.2416121e-05
 -5.0133191e-02   1.6356758e-05
  1.0018702e-01   3.2732522e-05
 -5.3950090e-02   8.6549917e-06
 -1.2714782e-02   3.9638194e-06
  1.7636667e-04   4.5668908e-06
 -1.9007413e-04   9.2641852e-07
  3.8299001e-07   1.0895126e-05
 -1.7760098e-01   3.6559984e-05
 -3.4291149e-04   1.4172898e-08
 -1.3931781e-01   1.4609401e-05
 -2.5103709e-02   4.0647992e-05
  3.7467301e-02   5.1843363e-04
  1.8977445e-01   1.4766832e-05
  1.2204587e-04   5.2985715e-06
  3.1188750e-04   4.2447673e-06
  6.2230618e-05   1.8584733e-05
 -7.6180710e-05   9.3414401e-06
 -6.5855952e-06   1.2610493e-06
  3.2044667e-05   1.0687054e-05
 -2.0768673e-05   1.8336775e-06
 -1.1305978e-04   2.5884534e-05
 -7.6640777e-07   1.5226414e-05
  1.2402922e-04   2.2270528e-05
 -1.0457275e-05   9.2793107e-06
 -2.8755068e-05   1.4083850e-05
  3.3915483e-05   8.9570631e-06
 -7.8926569e-06   3.6124832e-06
 -5.1376817e-05   2.9729272e-05
 -8.1148144e-05   2.3138973e-06
  5.1363950e-05   1.7987737e-05
  1.2916935e-05   3.5867984e-07
  7.4411444e-05   9.3008487e-07
 -1.3657844e-05   1.0355246e-05
  4.4599146e-05   1.4864366e-05
 -1.2996227e-05   1.3507127e-05
 -4.5447581e-05   3.6597162e-06
 -1.3039591e-04   1.3699871e-05
  4.9740567e-05   5.1188031e-06
 -5.7497640e-05   2.2103659e-06
 -7.8209314e-06   1.3823957e-05
 -2.6674661e-05   7.1712975e-06
  1.2669366e-04   5.0028079e-06
  7.2129063e-05   1.0719236e-05
  3.4391425e-05   9.4498582e-06
  1.8317255e-04   8.4680123e-06
  8.3544483e-06   6.9848506e-06
  6.4104461e-05   5.6778970e-07
 -8.3382271e-05   1.5859943e-05
  8.0026082e-05   7.5799107e-06
  5.4985532e-05   3.1006805e-06
 -8.9858231e-06   1.5609310e-05
  3.2858584e-06   9.2879127e-06
  5.9038302e-06   2.2246659e-05
 -1.9304955e-04   6.5031253e-07
 -3.2210170e-05   3.3567078e-06
  3.4572036e-05   1.4827303e-05
  3.1783351e-05   1.1153637e-05
  7.6435872e-06   5.3410472e-06
 -7.6383338e-05   5.8345322e-06
  1.9681434e-05   1.3620423e-05
 -2.4618459e-05   1.1203332e-05
 -6.3986197e-05   1.4711919e-05
 -4.0071256e-05   1.7942417e-05
 -4.4101271e-05   1.6040296e-05
  1.0907674e-04   5.1715806e-06
  2.5607014e-05   2.3819214e-06
  1.2134970e-04   9.8765111e-07
  1.1522264e-05   1.7567878e-05
 -1.3769831e-04   7.9371966e-06
  5.9187729e-05   8.5516658e-06
 -4.5971548e-05   8.3096654e-07
 -5.9239454e-05   1.9589370e-05
 -1.5750802e-05   1.3686571e-05
  1.5132562e-05   4.7923481e-06
 -8.1984486e-05   2.3986879e-06
 -4.3985314e-05   3.9602227e-08
 -5.1270046e-05   2.6346252e-05
 -5.4646291e-05   2.6889275e-05
 -7.8751900e-06   6.8558975e-06
  4.9920336e-06   1.3229956e-05
 -1.7129782e-05   8.2069882e-06
 -2.6353950e-05   3.5163778e-06
 -6.1441904e-05   4.5268521e-06
 -5.6682369e-05   9.0585245e-06
  1.0005368e-04   7.9465426e-06
 -2.0421956e-05   1.6589891e-05
 -3.8090002e-04   1.1855586e-06
 -1.9106729e-04   1.6268522e-06
 -5.3130127e-05   3.3282197e-07
  4.6427835e-05   3.2170316e-05
  1.2255632e-04   1.7361890e-05
  4.2291835e-05   2.9471361e-05
 -1.5350092e-04   2.4037390e-05
  3.8181490e-05   8.0773279e-06
 -1.7379842e-05   4.9266005e-06
 -2.6824575e-05   1.7012135e-05
  3.2889263e-06   2.6174594e-06
 -3.1360698e-05   3.3877498e-06
 -5.1398430e-04   1.9365894e-05
  1.7018045e-05   2.8982543e-06
  1.2331103e-05   3.2673554e-06
  1.4208939e-05   1.2716998e-05
  3.1433210e-05   2.4210503e-06
 -7.7816701e-05   3.6545025e-06
  7.5424752e-05   1.1736742e-05
  2.3283184e-05   1.0642296e-05
 -1.4898955e-04   1.7608304e-06
  2.1675760e-05   4.8645443e-06
  4.0966566e-05   1.8331335e-05
  1.1670665e-05   6.7807214e-06
 -1.7856200e-05   1.0263741e-05
  6.3105108e-05   2.3549337e-05
  4.6842506e-05   4.4553999e-06
  1.4778135e-04   7.6518045e-06
  4.9307793e-05   1.6451326e-05
 -7.2210358e-05   8.8893939e-06
  2.0143292e-05   5.0228908e-07
  1.3922204e-04   1.0027934e-05
  2.1723364e-04   1.5193386e-05
  7.3232753e-05   3.3313037e-05
 -1.4256769e-04   8.8580673e-06
  2.0435989e-04   2.3192999e-06
  3.4089902e-05   2.5302249e-06
 -4.4425993e-05   1.1142669e-06
 -1.1954110e-04   8.4588564e-06
 -4.8759057e-06   9.2269129e-06
 -1.7688809e-04   2.1439842e-05
  1.4344843e-04   2.7979700e-05
 -6.1253113e-06   1.4047990e-05
  5.5114865e-06   7.0394531e-06
 -2.9651635e-05   1.0887258e-05
 -1.8023080e-05   1.0309491e-05
 -2.5748104e-05   7.5694802e-06
  3.6875972e-05   2.8611350e-05
  2.9684522e-04   2.4426914e-05
  1.5330539e-04   4.4005096e-06
 -2.0636001e-04   6.1921492e-07
  7.0058471e-05   4.7984104e-06
  1.1710351e-04   1.4931117e-06
 -8.8378965e-06   3.7566856e-06
  5.8218880e-05   1.9001511e-06
 -8.3264740e-06   2.4049725e-05
  2.6019707e-06   3.1945492e-05
 -5.2379732e-05   3.3433557e-06
 -7.4275122e-05   5.9851313e-06
 -2.6400859e-05   1.1041071e-06
 -4.9524428e-05   3.8387129e-06
  8.0170736e-05   2.7267054e-06
  8.7455765e-06   1.1100841e-05
  1.8111992e-04   4.5773679e-05
  4.2872201e-05   1.2219262e-05
 -3.3793985e-05   8.5486254e-06
 -3.0502883e-05   1.7752127e-05
 -1.0157419e-04   5.9604431e-06
 -7.0917567e-06   2.5931509e-05
  1.0386025e-04   2.1092719e-05
  2.5213225e-05   1.1111910e-05
  1.5362985e-04   1.8322341e-06
  1.2581746e-04   1.8215278e-05
  4.8140505e-06   3.4724740e-06
  2.0298019e-05   9.8745013e-06
 -1.3717012e-04   1.9552870e-05
 -8.8462366e-06   3.6305304e-05
  1.2401243e-04   4.8100023e-06
  6.0525967e-06   2.0360467e-06
 -3.0137969e-07   6.2398681e-06
 -5.1367490e-05   1.1665152e-05
 -3.9107814e-05   1.1469408e-05
  5.7336806e-06   4.8313727e-06
 -1.1749184e-04   5.4482337e-07
  5.9075683e-05   4.4915430e-07
  9.1267987e-07   6.5197391e-06
  5.2780495e-05   3.9387355e-06
 -1.7878143e-04   6.5976624e-06
  2.2062512e-05   1.0343118e-05
 -4.5365297e-05   2.0594905e-06
  3.3916913e-05   6.2592953e-06
 -2.3245922e-04   2.8234733e-06
  5.8567339e-06   3.3048470e-06
  2.3481463e-05   6.6116113e-06
 -6.1899059e-06   3.3380176e-05
 -6.2201377e-02   8.3368786e-06
 -1.1317778e-05   5.9006034e-06
 -1.2719935e-04   7.9119593e-07
  2.6076945e-04   5.4944198e-06
 -2.4283618e-05   2.7379549e-05
 -7.1838510e-04   8.2043260e-07
  3.7619977e-06   2.2476665e-06
  1.3110472e-04   1.3836172e-06
 -9.8757650e-05   1.7715655e-06
 -1.7572465e-05   6.0134389e-06
 -9.7778728e-05   4.3559171e-06
  2.3156026e-06   2.8108711e-06
  4.7751723e-06   2.8628324e-06
 -1.8175217e-05   9.0943031e-06