160
Lattice="8.38837128 -0.00028126 -0.03243474 -0.00027586 8.33455418 0.03722275 -0.0973964 0.11149256 25.12317108" Properties=species:S:1:pos:R:3:forces:R:3 virial="13.477100027608813 8.003619915287164 -0.7156812852723394 8.003619915287164 21.028377197292368 -2.338939383979157 -0.7156812852723394 -2.338939383979157 15.3398921913968" config_type=aimd energy=-956.41972831 free_energy=-956.41972831 pbc="T T T"
Ga       1.01088192       1.07343677      17.90058171       0.11204445      -0.33363367      -0.89921760
Ga       5.31803289       1.07590171      21.99276416      -0.72573799      -0.24549306      -0.75687307
Ga       0.97759311       5.25495395      22.15456467      -0.23585626      -0.28730298      -0.76745186
Ga       1.03219055       1.21580669       9.48672035      -0.01305050       0.06254924       0.10939935
Ga       5.09640103       5.02447575       0.98385882      -0.60943655      -0.32136926      -1.35265080
Ga       3.01848451       3.25568250       7.32361957       0.12903019       0.09471500       1.42735206
Ga       7.43292202       7.38956088      15.63770501       0.37382061       0.53487792       0.59158241
Ga       3.05301134       7.42565302      11.53155211       0.47327125      -0.57238936       0.45505671
Ga       1.10748464       5.10581411       5.23183792      -0.81060102      -0.10190057       0.38064950
Ga       3.03167574       7.39464656      19.89587584      -0.49198932       0.74786621       0.80754052
Ga       3.04055134       7.18653497       3.07996939      -0.15303289      -0.29712241       0.53953632
Ga       7.13397740       3.04158226       3.20220505       0.30214836      -0.98034878       0.40293503
Ga       0.90558145       1.06714889       1.14780358      -0.30932379      -0.88226369      -1.09905778
Ga       7.10164018       7.45207672       7.23060608       0.07878191      -0.69269295      -0.34388948
Ga       5.34105478       1.10657769      13.50242402       0.16203635       0.49485047      -0.25217509
Ga       5.12601115       5.37624506       9.37452314      -0.46175029      -0.32364318       1.09116390
Ga       7.25795988       7.41703326      24.05023918      -0.73408150      -0.30458457       0.30890966
Ga       7.32076764       3.15425576      19.85523687      -0.28680555       0.66279954      -1.42249615
Ga       3.24549059       3.26137752      15.86761352       0.54760073      -0.30232362      -1.23390556
Ga       1.18509731       5.42565497      13.70401973       0.32550251      -0.34980362      -0.71793012
Ga      -0.01107993       0.06985188      12.42901663      -0.32953769       0.61497600       0.06621895
Ga       6.20428481       6.37627738      20.85490247       0.01333670       0.50906617      -0.23156449
Ga       2.12682934       4.18677972      18.92935288      -0.38060833       0.34834424      -0.27261174
Ga       2.11417060       6.25503621       0.03599153      -0.50437442      -0.21194663      -0.45111806
Ga       6.20004457       4.22206081      22.97293091      -0.57191752       0.89152795       0.32946827
Ga       6.30146567       0.05065628      10.40274154       0.22267068      -0.15376355       0.28103472
Ga       6.26728110       2.15429227      16.75576892       0.62443840       0.22217279      -0.18178517
Ga      -0.04557202       8.31962886      20.96932169       0.05321185       0.72551252       0.23166352
Ga       8.28101574       2.04541567       6.26021275       0.26001818       1.02275677      -0.18057673
Ga       3.97444842       0.09240198       8.25559623       0.64910203       0.50698357       0.55864675
Ga       6.18312998       4.22150301       6.29648526       0.13636596      -0.06204051       0.50504442
Ga       2.04615053       3.99236719       2.05570027      -0.84940797       0.85274749       0.36115797
Ga       4.19375448       4.24781634      20.97926287      -0.40442130      -0.48115672      -0.81530044
Ga       0.02318287       2.10900695      14.55890488      -0.01411672       0.40761803      -0.03541185
Ga       4.21486703       2.14978178      10.43340327       0.02070835       0.75771068       0.53939921
Ga       8.26955480       6.16989935       2.11549095       0.69765576      -0.25295478      -1.33559897
Ga       6.32432318       4.36933642      14.62558923       0.28632523      -0.36494534       0.65054178
Ga       6.09580004       8.20062377       2.09256919      -0.15293529       0.61892951      -0.58903778
Ga       2.09080066       2.10840068      21.04880410       0.14199427      -0.54090428       0.20499434
Ga       8.27679771       4.38762053       8.38402102      -0.19663813       0.18626884       0.98243880
Ga       8.35068480       8.33009232       4.24201616       0.00919186       0.75983375      -0.18415482
Ga       4.26158691       4.40894707      12.54970522       0.31239094       0.47745551      -0.06220846
Ga       3.91579767       1.83387347       2.10036765       0.67493044       0.54680241       0.21906283
Ga       0.02930703       2.06077656      23.01614398      -1.14876609       0.02673097       0.64879211
Ga       0.07043732       4.20606845      16.66003298      -0.88077128       0.04232144       0.46654365
Ga       3.94629404       6.43265278      23.05513131       0.55629557      -0.11854058       0.01900989
Ga       3.96328506       6.34499994       6.23008750       0.28838414       0.13110859      -0.19261026
Ga       1.98977634       4.42448812      10.53586095      -0.39436859      -0.45260056       0.44811084
Ga       2.18066799       2.18827800      12.57165488      -1.13134660       0.22347043       0.20848235
Ga       4.37281534       6.52901142      14.73694058      -0.24274934      -0.02805129      -0.75525543
Ga       8.29852891       6.41873630      18.80419453       0.07836026      -0.50815790      -0.88320270
Ga       4.03181079       4.01966776       4.22602696      -0.24724361      -0.13378643      -0.37935003
Ga       2.24231850       0.19156204      14.71704446      -0.36344776      -0.36261123       0.77737413
Ga       6.19186043       1.90072115      -0.01046039      -0.52895006       0.60905151       0.09751604
Ga       1.83617162       6.46316987       8.36809827      -0.43639965       0.41826699       0.47728814
Ga       2.23900636       6.43924372      16.80094146      -0.12246811       0.15922546       0.36760394
Ga       6.26252060       6.18081330       4.04308219      -1.16791139      -0.75438274       1.43405853
Ga       8.30438981       4.07227896       0.01278884       0.16854284       0.68390990       0.28989096
Ga       6.28559134       2.20219174       8.39318688      -0.50862678      -0.14803159      -0.56732359
Ga       4.22241127       2.05162484      18.84535381       0.61585035       0.66111170      -0.20506297
Ga       7.29646803       5.33832510      11.53677313       0.24326937       0.69788347       0.02569782
Ga       3.02810349       1.02712550       5.21803882      -0.06205557       0.44073880       0.57239903
Ga       3.03523257       1.15070885      24.19083437       0.27578506       0.09790102      -0.66464725
Ga       5.27108870       7.44602998      17.78700386       0.26214208       0.21380080       0.36574214
O        1.99668025       2.12513714       2.09528696       0.72868637      -0.33959572       0.02110715
O        6.03841572       6.16100364       6.16382356       0.56751975       0.38494061      -0.27274826
O        4.05128986       8.26372432       6.39376840      -0.35553139       0.26310867      -0.52670968
O        4.14096400       8.29232030       2.14316405       0.61228762      -0.05865411       0.00345498
O        8.36411625       6.18923440       4.04674698      -0.67222259       0.17060325       0.56225662
O        8.20633578       1.99241192       4.31505064      -0.23131501       0.01094931      -0.62307743
O        6.20751444       4.24769366       8.41412134       1.00577549      -0.48966989      -1.20988350
O        1.78562417       4.26242218       0.19798969      -0.04006431       0.34198235       0.11045183
O        8.27524917       4.06846599       2.12835269       0.22068244       1.08664820      -0.59346912
O        8.24807181       4.14713820       6.39044397       0.31055503       0.36239253      -0.75418217
O        4.28451684       2.03332660       0.15839926      -0.52238161      -0.32562048      -0.21364481
O        4.16528679       6.37214171       8.20724177      -1.23901187       0.81664419      -0.45341227
O        1.99706759       8.24803415       4.21074053      -0.56741316      -0.31145581      -0.12072014
O        6.37804329       7.98032948       3.92994160       0.55509382       0.82611125       0.17875216
O        2.04404127       6.10973315       6.47320427       0.67752808       0.06095233      -0.55679093
O        6.12780942       1.96633974       2.01043650      -0.22381475      -0.32462506       0.37730574
O        4.01786328       4.00643248       2.12444420       0.16786154      -0.18757486       0.60779234
O        4.13038023       4.27202049       6.19123519       0.30012876      -0.00569981       0.14514025
O        8.29708898       2.27719047       8.32955637       0.15209947       0.04969297      -0.40340302
O        8.24903726       6.09578981       0.04995138       0.84250585       0.31886573       0.89854032
O        8.15456299       0.18358148       6.11556024       0.16135297      -0.98974715       0.11217053
O        8.29479465       8.23862502       2.19133740      -0.27070191      -0.72232509       0.35842893
O        4.16057806       6.11880132       4.22919089      -0.06321591       0.07658744      -0.16801043
O        4.03410355       2.10895155       4.10906414       0.33341562       0.22609010      -0.83208265
O        6.32150073       2.36536741       6.45253772       0.11384422      -0.22122350       0.89142671
O        1.89785595       6.15530947       2.00650770       0.01478158       0.00467687       0.02601488
O        2.14507361       4.21642113       4.00700443      -0.29103298       0.24522666       0.14195217
O        6.07007068       4.25765366       4.26265741       0.23094383      -0.38788074      -0.33251248
O        6.39701728       0.01945055       0.16824618       0.09753700      -0.38129675      -0.65465370
O        2.08370519       0.04178438       8.43497619      -0.19547495       0.06280624       0.01241344
O        6.18262137       6.09882416       2.01510495       1.05944717       0.82486522       1.04473164
O        1.96803112       2.25295964       6.24783784      -0.26569767      -0.82460586      -0.37178714
O        2.23283012       2.28046094      10.56233112      -0.49400449       0.30545785      -0.08459475
O        6.25051942       6.29760393      14.81549178      -0.07236313       0.12767285      -0.31723155
O        4.14495106       0.11258680      14.51687888       0.27361531      -0.17234292      -0.15669479
O        4.13411612       0.17734756      10.41803199       0.47422196       0.00728002      -0.57056162
O        0.13636642       6.44148876      12.54582934      -0.24548228      -0.66191530       0.07125707
O        0.29065460       2.05913716      12.68185906      -0.40455339      -0.20345795       0.42393793
O        6.52373136       4.10311085      16.48784939       0.72852636      -0.31150371      -0.18706685
O        1.95137142       4.27743432       8.56137479      -0.35218000       0.51480178      -0.54251869
O        8.34091133       4.36278927      10.37288512       1.22924102       0.01673216      -0.67703230
O        0.14378823       4.18471103      14.63460144      -0.41520893       0.01378489       0.72392258
O        4.10962542       2.16603154       8.47900004      -0.15950841      -0.25854636      -1.35470649
O        4.14041139       6.49436419      16.69175570      -0.21179498      -0.60625222      -0.48990172
O        1.95032621       0.15012742      12.60216823       1.37551422      -0.08562954       0.03208773
O        6.40484779       0.14191111      12.32141250       0.00574785       0.17617036       0.81553571
O        2.21578488       6.51782801      14.83212627       0.26709692      -0.55926193      -0.23043858
O        6.09775712       1.98013525      10.21241759      -0.34190445       0.10807400       0.52856554
O        4.13228828       4.21639597      10.55926894       0.03438375      -0.22672614      -0.11162939
O        4.28469055       4.31893821      14.55086857      -0.35021059       0.19068129       0.96124182
O       -0.02048963       2.16715767      16.66125017       0.41904777       0.13333476      -0.04940563
O        8.27399963       6.36133955       8.16709892       0.62133439      -0.81736960       0.41027857
O        0.12951223       0.12828337      14.54928016       0.03356959      -0.23502802      -0.10038207
O        8.29380983       0.22149479      10.46779410      -0.43272124      -0.62453740       0.03905200
O        3.99214830       6.30634023      12.69446805       0.16361932       0.05141560       0.64191571
O        4.11135027       2.35087497      12.53241712       0.77319328      -0.65770780      -0.38107205
O        6.45154877       2.15615943      14.66786369      -0.44792018       0.12814460      -0.37441865
O        2.32669318       6.27531198      10.28937239      -0.79343673      -0.22829063      -0.55467144
O        2.19590941       4.23709724      12.52884974      -0.15605978       0.04308015      -0.25116376
O        6.24648151       4.49171704      12.77816678      -0.74482030      -0.63364723      -0.83577844
O        6.06907157       0.12983840       8.36346381      -0.22079544       0.01955544      -0.01313765
O        2.00682500       8.31139357      16.75658059      -0.30293550       1.23851169      -0.37713010
O        6.12311597       6.42333031      10.49383194       0.56620346      -0.07162529       0.13405314
O        2.12337484       2.10239641      14.65106205       0.41183847       0.79002014       0.51886767
O        2.14304963       2.19719380      18.94772427      -0.31424055      -0.15836214       0.01292535
O        6.25416155       6.21748310      22.94763587      -0.49878759       0.64251520      -0.18804015
O        4.12321806       0.12425191      23.04866776       0.14426405      -0.78268236       0.12145577
O        4.04879176       0.15410133      18.79068321       0.88542779      -0.75701931      -0.11237188
O       -0.06590677       6.34388553      20.89502640      -0.02048539      -0.23099053       0.06516281
O       -0.02257194       2.09971570      21.01472363       0.30176429      -0.15580617       0.34433204
O        6.22590622       4.13498333      25.06791490      -0.17005912      -0.42059422      -0.45292299
O        2.04784247       4.26795744      16.89539440       0.30198230       0.58088256      -0.30116888
O        0.14327767       4.20671193      18.73066527      -0.35001538       0.81298348       0.35099298
O        8.15697435       4.15641136      23.11633465       0.63112109      -0.27009601      -0.20360296
O        4.37575017       2.26390373      16.89484656      -0.91732751      -0.06593523      -0.18368655
O        3.91231250       6.17911337      24.98990008       0.47755165       0.09138676       0.34953045
O        1.90697638       0.20848447      20.85704000       0.24345429      -0.77527148      -0.05978026
O        6.31700607       8.30833506      20.96305396       0.17655394      -0.13596585       0.04970742
O        1.98203961       6.36909087      23.17340839       0.46072876       0.00495174       0.24362972
O        6.21624526       2.23956362      18.68619466      -0.05454057      -0.05087340       1.01329504
O        4.00494751       4.00009270      19.15679378      -0.36070364       0.51192391      -0.38169173
O        4.29361988       4.48128444      22.78510664       0.24595755      -0.36682527       0.60002734
O        8.07403698       2.24155482      25.00944726       0.90668490      -0.76513732       0.48032688
O        0.19525014       6.27324510      16.75367833      -0.50130168      -0.61209899       0.74888393
O        8.17817372       0.16714358      22.88103726       0.09486379       0.02183565      -0.02013467
O       -0.05383058       8.32616395      19.01632171       0.43764258       0.07653833      -0.28556651
O        4.13837830       6.28454502      20.98421394       0.12568815       0.71325561      -0.03847905
O        4.07943155       2.13139325      20.91691793       0.56012465       0.04660441       0.58129519
O        6.30498843       2.26791928      23.05869050      -0.21018745      -0.22075600       0.21906737
O        2.03588688       6.29278556      18.75086518      -0.50073727      -0.98865933       0.55563927
O        1.96345204       4.14715761      20.94433519       0.37970693      -0.12510270       0.41718653
O        6.31338006       4.38085480      20.91576039      -0.49070611      -0.46479237       0.48056474
O        6.39761186       0.17703997      16.71808267       0.06565765      -0.53968763      -0.19773371
O        2.07785139       8.28676899       0.14195379      -0.98750757      -0.05977869       0.45217457
O        6.38530504       6.37091823      18.89133792      -0.32592163      -0.01032070       0.30213007
O        1.85238588       2.04037026      23.02398412       1.19344596       0.49669363      -0.41901737
160
Lattice="8.38837128 -0.00028126 -0.03243474 -0.00027586 8.33455418 0.03722275 -0.0973964 0.11149256 25.12317108" Properties=species:S:1:pos:R:3:forces:R:3 virial="12.486730611590916 -1.8365506194163452 2.919379268574274 -1.8365506194163452 15.045586926018798 4.958868178269191 2.919379268574274 4.958868178269191 16.375282960940037" config_type=aimd energy=-957.51465999 free_energy=-957.51465999 pbc="T T T"
Ga       1.06212639       1.06084896      17.80291490      -0.09406231      -0.54469643       0.17340464
Ga       5.27064678       1.11509096      21.89499420       0.09122932      -0.91155632      -0.20961496
Ga       0.93019691       5.20807106      21.97512164       0.22045262       0.42106761       0.69761901
Ga       1.05191358       1.21204435       9.55610551      -0.31426974      -0.13770585      -0.14843888
Ga       5.08441262       5.05147420       1.00988890       0.12687551       0.15768779      -0.86562691
Ga       3.02061555       3.34297992       7.44369763      -0.09892796      -0.13500389      -0.11135062
Ga       7.44397508       7.33418253      15.70941068      -0.04826880       0.54605824      -0.31587073
Ga       3.16042064       7.34682358      11.57246793       0.83388730       0.95665014       0.14684486
Ga       0.98083725       5.29383121       5.25660110       0.23264496      -0.09181386       0.69237623
Ga       2.97847064       7.37426139      20.01136743       0.08772917       0.50772237      -0.39829496
Ga       3.01699117       7.24725104       3.06419182       0.46468373       0.38183155      -0.17383320
Ga       7.12154530       3.04296899       3.17403818      -0.03101649       0.00564989       0.11715106
Ga       0.95960046       0.97660272       1.01463430      -0.36826240      -0.02592152       0.10057518
Ga       7.24476321       7.39068104       7.30084998       0.27282948      -0.55610573      -0.75845289
Ga       5.33856672       1.13716268      13.54244333      -0.34073947      -0.24339105      -0.36438995
Ga       5.15548870       5.35415243       9.40006061      -0.86641766      -0.32985869      -0.91827563
Ga       7.21063497       7.42527527      24.05813257      -0.13804153      -0.20531578      -0.26761626
Ga       7.22651750       3.24347984      19.86646445      -0.41829982       0.11864490      -0.52564737
Ga       3.25133975       3.29500356      15.73039321       0.78302334      -0.60641862       0.45578985
Ga       1.24704301       5.36917247      13.70610401      -0.04858067      -1.07004469      -0.28699312
Ga       0.02318430       8.37882656      12.56019217       0.04824385      -0.04772112       0.10388745
Ga       6.16930603       6.44100101      20.83554572      -0.28508772      -0.07421315      -0.06772094
Ga       2.11352882       4.11773872      18.77703071      -0.09569551       0.82180710       0.94689059
Ga       1.95577043       6.22903697      25.04060766       0.31896283       1.18060641      -0.04900796
Ga       6.16891227       4.20122989      22.92422326      -0.44881349       0.25107345       0.26603450
Ga       6.32619446       8.35099264      10.57753471       0.04656791      -0.15081049      -0.44454310
Ga       6.24500703       2.05301035      16.75525274      -0.07657654       0.24450116      -0.13419763
Ga       8.29335545       0.10370033      20.88665663      -0.26153556       0.00528275      -0.03279313
Ga       0.00939326       2.08120584       6.29531181      -0.03549503       0.40327833      -0.24797316
Ga       4.11123325       0.19758851       8.21715753      -0.29013633      -0.49431715       0.33908795
Ga       6.21656136       4.14980475       6.30620279       0.35394030      -0.12861230       0.30994841
Ga       1.99988765       4.07281522       2.18198104      -0.81055049      -0.19732194      -0.26209106
Ga       4.05981338       4.23128276      20.90364916       0.47670317       0.30011317       0.96954854
Ga       0.01940704       2.14469189      14.62456715       0.28932102       0.36838481      -0.17268598
Ga       4.25779201       2.18313179      10.42955057       0.07950871      -0.06170320       0.25115154
Ga       8.29343104       6.19644626       2.08783267      -0.29716994       0.16814292       0.08725494
Ga       6.45130044       4.37595723      14.70425153      -0.57067697      -0.07803810      -1.07281142
Ga       6.08076986       8.25374700       2.06020983       0.40774086      -0.73033041       0.09001862
Ga       2.09349418       2.06680965      21.03658491       0.06417793      -0.23280181      -0.42035910
Ga       8.25012770       4.41975135       8.50828662       0.31396676      -0.41823114      -0.35424806
Ga       8.28416268       0.09162048       4.16706201       0.39838531      -0.22576908       0.06220381
Ga       4.38396832       4.36992245      12.52506395      -0.16812696      -0.34193276       0.33669692
Ga       3.93087189       1.92064563       2.00490708       0.10944875      -0.05915664       0.09870739
Ga       0.01123931       2.08464585      23.05792371      -1.09765119       0.00697735       0.29736471
Ga      -0.03569075       4.19094951      16.87795976       0.37630826      -0.12494349      -0.63243992
Ga       4.05096710       6.27001705      23.05419171      -0.28812164       0.35826253       0.19320430
Ga       3.95605741       6.41184378       6.22732895       0.07965475      -0.25882895      -0.20151844
Ga       1.96382389       4.38985896      10.58885388       0.41787016       0.12678860       0.05671783
Ga       2.13727856       2.15030680      12.51448351      -0.19399007      -0.02091326       1.17521579
Ga       4.38610263       6.50940236      14.62680516      -0.39117241      -0.02710535       0.76839986
Ga       8.31159548       6.42391403      18.83928408      -0.60825966       0.01619315      -0.52878492
Ga       3.99875379       4.05603036       4.26998123      -0.32707657      -0.07312535      -0.19914499
Ga       2.20566362       0.16625855      14.74839466       0.51768562      -0.11173963       0.12877468
Ga       6.00736670       2.02858724      25.10710227       0.17027144       0.46923560      -1.39675826
Ga       1.89479805       6.53666523       8.41127702       0.44647148      -0.11513202       0.36842226
Ga       2.20587292       6.39558811      16.81712120       0.76167600      -0.23159253       0.29036423
Ga       6.18775847       6.27810408       4.25111143      -0.09999997      -0.53054992      -0.76308874
Ga       8.27121567       4.16006884       0.00489471      -0.18754746      -0.76459556      -0.09084415
Ga       6.38242018       2.07280735       8.37985440      -0.12841244       0.38274414       0.08156783
Ga       4.21984087       2.10706527      18.79797947       0.59244255      -0.09597261      -0.11623753
Ga       7.36301815       5.26876610      11.58005990      -0.93460773       0.48335017      -0.03025367
Ga       2.98915043       1.11226394       5.21370573      -0.11378956      -0.36108600      -0.52583224
Ga       3.04157095       1.03848729      23.95211515      -0.68849633      -0.28193285       0.96424189
Ga       5.13942037       7.45626100      17.79839967       0.82905541      -0.96467295      -0.13107222
O        2.05583884       2.11829792       1.95800767      -0.48679390       0.20295517       0.12279169
O        6.14813433       6.18019981       6.18236874      -0.22036566       0.19434133       0.29199343
O        4.02668413       8.32181398       6.33657783       0.05153855       0.25764237       0.24076114
O        4.20300156       0.03005711       2.09829873      -0.75096074      -0.36471540       0.24021408
O        8.23240657       6.24160634       4.10023012      -0.28583986       0.35452904      -0.29662694
O        8.17829489       2.02298209       4.27279544       0.16030600      -0.19209712      -0.01780508
O        6.30727490       4.28601551       8.31945798       0.03290179      -0.26980681       0.12061039
O        1.72477206       4.31047240       0.28425908       0.40304204      -0.49595836       0.00253587
O        8.20239540       4.19334197       2.09194952       0.15503204      -0.21776547       0.06225752
O        8.28295727       4.18310907       6.28766929      -0.46764867      -0.30466885       0.62702674
O        4.20343705       1.94848058      -0.00450764      -0.27726799      -0.09099608       0.39065770
O        4.10055642       6.35640757       8.18435851      -0.35456161       0.68375099       0.73181356
O        1.95494197       8.30841878       4.12237029      -0.41526190       0.41161290       0.75061513
O        6.38518563       8.07597208       3.97762957       0.03543779       0.92299737      -0.45274750
O        2.06798199       6.23316609       6.47073319       0.04167610      -0.20570255      -0.48780797
O        6.07893428       1.97493920       1.93679554       0.26965966       0.31304100       0.75604807
O        3.99474848       4.02605341       2.17291479       0.38078998      -0.07486757       0.02575428
O        4.18794280       4.31114239       6.29705822       0.02283797      -0.10039275      -0.70431744
O       -0.00497293       2.36646272       8.43036462       0.12833210      -0.63310754      -0.19153199
O        8.26092908       6.10662083       0.07295876       0.14319517       0.72290544      -0.11665435
O        8.30666352       0.10859786       6.16139313       0.01607954       0.35747410      -0.11329273
O        8.26370906       8.16958185       2.13724610       0.03288602       0.62432125       0.00054485
O        4.13810529       6.19850440       4.18019984       0.58961995      -0.61188405       1.09124674
O        3.94971944       2.16677369       4.03035915       0.30289236       0.28094400       0.03701626
O        6.42800437       2.24634903       6.55082044       0.21243031       0.53493180      -0.44119478
O        1.92190156       6.16817269       2.04046113      -0.28612958      -0.06666936      -0.40505854
O        2.06561258       4.35489320       4.11575824       0.64979040      -0.48411353      -0.55999442
O        6.05616682       4.19455367       4.31874124      -0.18870446       0.28006732      -0.38915131
O        6.33757893       0.02214568       0.07740011       0.01865525       0.06319532       0.18989596
O        2.18352926       0.09485622       8.54976175      -0.16407560      -0.09949150      -0.04147532
O        6.18235327       6.18793238       2.06072633       0.43696176      -0.05901504       0.47969742
O        1.99410326       2.26717758       6.30644853      -0.01359253      -0.18211914       0.16145519
O        2.23387961       2.32597125      10.56611903      -0.29758091       0.04453765      -0.29906259
O        6.26205634       6.31441453      14.71760609       0.79513843      -0.39065684       0.11643451
O        4.11744414       0.07344997      14.53246893       0.73337444       0.08590074      -0.23114609
O        4.27541159       0.14118492      10.37710941      -0.39242006      -0.31633916       0.15437674
O        0.12961758       6.31706289      12.60685541       0.01732206       0.64041196       0.23730532
O        0.24246518       2.01105397      12.75935529       0.47050625      -0.00452712      -0.04732298
O        6.55370514       3.98336992      16.54189425      -0.35168831       0.18941116       0.02277682
O        1.94997493       4.40496532       8.55492956      -0.02251813      -0.07850318       0.27019541
O        0.05963737       4.39479470      10.44877657       0.42123193      -0.59876043      -0.28505097
O        0.11560464       4.22374024      14.73246122      -0.40691972      -0.28923300       0.09387365
O        4.20842916       2.22048584       8.42761977      -0.51835810      -0.46163935      -0.42227662
O        4.14667396       6.34888462      16.65249594      -0.33779837       0.29634099      -0.01314391
O        2.13229627       0.12718085      12.67390657      -0.52565103       0.04494663      -0.31206433
O        6.46232885       0.11755178      12.43505932      -0.33877856       0.03668727       0.39513077
O        2.28007382       6.37019813      14.83281265      -0.13577518       0.47650858      -0.04216066
O        6.10499179       1.93854110      10.18108839       0.55930114       0.17926468       0.65722974
O        4.19058842       4.18423537      10.55754279      -0.09699667       0.03006042      -0.21452859
O        4.36123343       4.34174127      14.58200849      -0.05141682      -0.16671553       0.08709648
O        0.07081781       2.13979622      16.61097727      -0.33981997       0.34953744       0.38155092
O        0.00422316       6.29593528       8.35482565      -0.28394995       0.62376718      -0.34582575
O        0.14782287       0.11922768      14.55547864      -0.11145371      -0.68562989       0.39429542